# t (s)	mx ()	my ()	mz ()	m.region1x ()	m.region1y ()	m.region1z ()	m.region2x ()	m.region2y ()	m.region2z ()	m.region3x ()	m.region3y ()	m.region3z ()	m.region4x ()	m.region4y ()	m.region4z ()	m.region5x ()	m.region5y ()	m.region5z ()	m.region6x ()	m.region6y ()	m.region6z ()	m.region7x ()	m.region7y ()	m.region7z ()	m.region8x ()	m.region8y ()	m.region8z ()	m.region9x ()	m.region9y ()	m.region9z ()	m.region10x ()	m.region10y ()	m.region10z ()	m.region11x ()	m.region11y ()	m.region11z ()	m.region12x ()	m.region12y ()	m.region12z ()	m.region13x ()	m.region13y ()	m.region13z ()	m.region14x ()	m.region14y ()	m.region14z ()	m.region15x ()	m.region15y ()	m.region15z ()	m.region16x ()	m.region16y ()	m.region16z ()	m.region17x ()	m.region17y ()	m.region17z ()	m.region18x ()	m.region18y ()	m.region18z ()	m.region19x ()	m.region19y ()	m.region19z ()	m.region20x ()	m.region20y ()	m.region20z ()	m.region21x ()	m.region21y ()	m.region21z ()	m.region22x ()	m.region22y ()	m.region22z ()	m.region23x ()	m.region23y ()	m.region23z ()	m.region24x ()	m.region24y ()	m.region24z ()	m.region25x ()	m.region25y ()	m.region25z ()	J.region1x (A/m2)	J.region1y (A/m2)	J.region1z (A/m2)	E_total (J)
